<UPF version="2.0.1">
  <PP_INFO>

 This pseudopotential file has been produced using the code
 ONCVPSP  (Optimized Norm-Conservinng Vanderbilt PSeudopotential)
 scalar-relativistic version 3.2.2 08/07/2015 by D. R. Hamann
 The code is available through a link at URL www.mat-simresearch.com.
 Documentation with the package provides a full discription of the
 input data below.


 While it is not required under the terms of the GNU GPL, it is
 suggested that you cite D. R. Hamann, Phys. Rev. B 88, 085117 (2013)
 in any publication using these pseudopotentials.

    <PP_INPUTFILE>
# ATOM AND REFERENCE CONFIGURATION
# atsym  z   nc   nv     iexc    psfile
  Si 14.00    3    2       4      upf
#
#   n    l    f        energy (Ha)
    1    0    2.00
    2    0    2.00
    2    1    6.00
    3    0    2.00
    3    1    2.00
#
# PSEUDOPOTENTIAL AND OPTIMIZATION
# lmax
    1
#
#   l,   rc,     ep,   ncon, nbas, qcut
    0    2.40   -0.40    5    8    5.11
    1    3.56   -0.15    5    8    3.50
#
# LOCAL POTENTIAL
# lloc, lpopt,  rc(5),   dvloc0
    4    5      1.28       0.00
#
# VANDERBILT-KLEINMAN-BYLANDER PROJECTORs
# l, nproj, debl
    0    2    0.5680
    1    2    1.0088
#
# MODEL CORE CHARGE
# icmod, fcfact
    0    0.00
#
# LOG DERIVATIVE ANALYSIS
# epsh1, epsh2, depsh
   -5.00    3.00    0.02
#
# OUTPUT GRID
# rlmax, drl
    6.00    0.01
#
# TEST CONFIGURATIONS
# ncnf
    0
# nvcnf
#   n    l    f
    </PP_INPUTFILE>
  </PP_INFO>
  <!--                               -->
  <!-- END OF HUMAN READABLE SECTION -->
  <!--                               -->
    <PP_HEADER
       generated="Generated using ONCVPSP code by D. R. Hamann"
       author="anonymous"
       date="221025"
       comment="Modified by Emil Briggs to output UPF format on log grid for RMG."
       element="Si"
       pseudo_type="NC"
       relativistic="scalar"
       is_ultrasoft="F"
       is_paw="F"
       is_coulomb="F"
       has_so="F"
       has_wfc="F"
       has_gipaw="F"
       core_correction="F"
       functional="PBE"
       z_valence="    4.00"
       total_psenergy="  -7.48665938304E+00"
       rho_cutoff="   1.50900000000E+01"
       l_max="1"
       l_local="-1"
       mesh_size="  1177"
       number_of_wfc="2"
       number_of_proj="4"/>
 <PP_MESH>
   <PP_R type="real"  size="1177" columns="4">
  0.357142857143E-04  0.361428571429E-04  0.365765714286E-04  0.370154902857E-04
  0.374596761691E-04  0.379091922832E-04  0.383641025906E-04  0.388244718217E-04
  0.392903654835E-04  0.397618498693E-04  0.402389920678E-04  0.407218599726E-04
  0.412105222922E-04  0.417050485597E-04  0.422055091425E-04  0.427119752522E-04
  0.432245189552E-04  0.437432131827E-04  0.442681317408E-04  0.447993493217E-04
  0.453369415136E-04  0.458809848118E-04  0.464315566295E-04  0.469887353091E-04
  0.475526001328E-04  0.481232313344E-04  0.487007101104E-04  0.492851186317E-04
  0.498765400553E-04  0.504750585359E-04  0.510807592384E-04  0.516937283492E-04
  0.523140530894E-04  0.529418217265E-04  0.535771235872E-04  0.542200490703E-04
  0.548706896591E-04  0.555291379350E-04  0.561954875902E-04  0.568698334413E-04
  0.575522714426E-04  0.582428986999E-04  0.589418134843E-04  0.596491152461E-04
  0.603649046291E-04  0.610892834846E-04  0.618223548865E-04  0.625642231451E-04
  0.633149938228E-04  0.640747737487E-04  0.648436710337E-04  0.656217950861E-04
  0.664092566271E-04  0.672061677067E-04  0.680126417191E-04  0.688287934198E-04
  0.696547389408E-04  0.704905958081E-04  0.713364829578E-04  0.721925207533E-04
  0.730588310023E-04  0.739355369743E-04  0.748227634180E-04  0.757206365791E-04
  0.766292842180E-04  0.775488356286E-04  0.784794216562E-04  0.794211747160E-04
  0.803742288126E-04  0.813387195584E-04  0.823147841931E-04  0.833025616034E-04
  0.843021923426E-04  0.853138186508E-04  0.863375844746E-04  0.873736354883E-04
  0.884221191141E-04  0.894831845435E-04  0.905569827580E-04  0.916436665511E-04
  0.927433905497E-04  0.938563112363E-04  0.949825869711E-04  0.961223780148E-04
  0.972758465510E-04  0.984431567096E-04  0.996244745901E-04  0.100819968285E-03
  0.102029807905E-03  0.103254165599E-03  0.104493215587E-03  0.105747134174E-03
  0.107016099784E-03  0.108300292981E-03  0.109599896497E-03  0.110915095255E-03
  0.112246076398E-03  0.113593029315E-03  0.114956145667E-03  0.116335619415E-03
  0.117731646848E-03  0.119144426610E-03  0.120574159729E-03  0.122021049646E-03
  0.123485302241E-03  0.124967125868E-03  0.126466731379E-03  0.127984332155E-03
  0.129520144141E-03  0.131074385871E-03  0.132647278501E-03  0.134239045843E-03
  0.135849914394E-03  0.137480113366E-03  0.139129874727E-03  0.140799433223E-03
  0.142489026422E-03  0.144198894739E-03  0.145929281476E-03  0.147680432854E-03
  0.149452598048E-03  0.151246029224E-03  0.153060981575E-03  0.154897713354E-03
  0.156756485914E-03  0.158637563745E-03  0.160541214510E-03  0.162467709084E-03
  0.164417321593E-03  0.166390329452E-03  0.168387013406E-03  0.170407657567E-03
  0.172452549458E-03  0.174521980051E-03  0.176616243812E-03  0.178735638737E-03
  0.180880466402E-03  0.183051031999E-03  0.185247644383E-03  0.187470616116E-03
  0.189720263509E-03  0.191996906671E-03  0.194300869551E-03  0.196632479986E-03
  0.198992069746E-03  0.201379974583E-03  0.203796534278E-03  0.206242092689E-03
  0.208716997801E-03  0.211221601775E-03  0.213756260996E-03  0.216321336128E-03
  0.218917192162E-03  0.221544198468E-03  0.224202728849E-03  0.226893161595E-03
  0.229615879535E-03  0.232371270089E-03  0.235159725330E-03  0.237981642034E-03
  0.240837421738E-03  0.243727470799E-03  0.246652200449E-03  0.249612026854E-03
  0.252607371176E-03  0.255638659631E-03  0.258706323546E-03  0.261810799429E-03
  0.264952529022E-03  0.268131959370E-03  0.271349542883E-03  0.274605737397E-03
  0.277901006246E-03  0.281235818321E-03  0.284610648141E-03  0.288025975918E-03
  0.291482287629E-03  0.294980075081E-03  0.298519835982E-03  0.302102074014E-03
  0.305727298902E-03  0.309396026489E-03  0.313108778807E-03  0.316866084152E-03
  0.320668477162E-03  0.324516498888E-03  0.328410696875E-03  0.332351625237E-03
  0.336339844740E-03  0.340375922877E-03  0.344460433951E-03  0.348593959159E-03
  0.352777086669E-03  0.357010411709E-03  0.361294536649E-03  0.365630071089E-03
  0.370017631942E-03  0.374457843525E-03  0.378951337648E-03  0.383498753700E-03
  0.388100738744E-03  0.392757947609E-03  0.397471042980E-03  0.402240695496E-03
  0.407067583842E-03  0.411952394848E-03  0.416895823586E-03  0.421898573469E-03
  0.426961356351E-03  0.432084892627E-03  0.437269911339E-03  0.442517150275E-03
  0.447827356078E-03  0.453201284351E-03  0.458639699763E-03  0.464143376160E-03
  0.469713096674E-03  0.475349653834E-03  0.481053849680E-03  0.486826495876E-03
  0.492668413827E-03  0.498580434793E-03  0.504563400010E-03  0.510618160810E-03
  0.516745578740E-03  0.522946525685E-03  0.529221883993E-03  0.535572546601E-03
  0.541999417160E-03  0.548503410166E-03  0.555085451088E-03  0.561746476501E-03
  0.568487434219E-03  0.575309283430E-03  0.582212994831E-03  0.589199550769E-03
  0.596269945378E-03  0.603425184723E-03  0.610666286940E-03  0.617994282383E-03
  0.625410213772E-03  0.632915136337E-03  0.640510117973E-03  0.648196239389E-03
  0.655974594261E-03  0.663846289392E-03  0.671812444865E-03  0.679874194203E-03
  0.688032684534E-03  0.696289076748E-03  0.704644545669E-03  0.713100280217E-03
  0.721657483580E-03  0.730317373383E-03  0.739081181863E-03  0.747950156046E-03
  0.756925557918E-03  0.766008664613E-03  0.775200768589E-03  0.784503177812E-03
  0.793917215946E-03  0.803444222537E-03  0.813085553207E-03  0.822842579846E-03
  0.832716690804E-03  0.842709291094E-03  0.852821802587E-03  0.863055664218E-03
  0.873412332188E-03  0.883893280175E-03  0.894499999537E-03  0.905233999531E-03
  0.916096807526E-03  0.927089969216E-03  0.938215048846E-03  0.949473629433E-03
  0.960867312986E-03  0.972397720742E-03  0.984066493391E-03  0.995875291311E-03
  0.100782579481E-02  0.101991970434E-02  0.103215874080E-02  0.104454464569E-02
  0.105707918143E-02  0.106976413161E-02  0.108260130119E-02  0.109559251681E-02
  0.110873962701E-02  0.112204450253E-02  0.113550903656E-02  0.114913514500E-02
  0.116292476674E-02  0.117687986394E-02  0.119100242231E-02  0.120529445138E-02
  0.121975798479E-02  0.123439508061E-02  0.124920782158E-02  0.126419831544E-02
  0.127936869522E-02  0.129472111956E-02  0.131025777300E-02  0.132598086628E-02
  0.134189263667E-02  0.135799534831E-02  0.137429129249E-02  0.139078278800E-02
  0.140747218146E-02  0.142436184763E-02  0.144145418981E-02  0.145875164008E-02
  0.147625665976E-02  0.149397173968E-02  0.151189940056E-02  0.153004219336E-02
  0.154840269968E-02  0.156698353208E-02  0.158578733447E-02  0.160481678248E-02
  0.162407458387E-02  0.164356347888E-02  0.166328624062E-02  0.168324567551E-02
  0.170344462362E-02  0.172388595910E-02  0.174457259061E-02  0.176550746170E-02
  0.178669355124E-02  0.180813387385E-02  0.182983148034E-02  0.185178945810E-02
  0.187401093160E-02  0.189649906278E-02  0.191925705153E-02  0.194228813615E-02
  0.196559559378E-02  0.198918274091E-02  0.201305293380E-02  0.203720956900E-02
  0.206165608383E-02  0.208639595684E-02  0.211143270832E-02  0.213676990082E-02
  0.216241113963E-02  0.218836007331E-02  0.221462039419E-02  0.224119583892E-02
  0.226809018898E-02  0.229530727125E-02  0.232285095851E-02  0.235072517001E-02
  0.237893387205E-02  0.240748107851E-02  0.243637085145E-02  0.246560730167E-02
  0.249519458929E-02  0.252513692436E-02  0.255543856746E-02  0.258610383026E-02
  0.261713707623E-02  0.264854272114E-02  0.268032523380E-02  0.271248913660E-02
  0.274503900624E-02  0.277797947432E-02  0.281131522801E-02  0.284505101074E-02
  0.287919162287E-02  0.291374192235E-02  0.294870682542E-02  0.298409130732E-02
  0.301990040301E-02  0.305613920784E-02  0.309281287834E-02  0.312992663288E-02
  0.316748575247E-02  0.320549558150E-02  0.324396152848E-02  0.328288906682E-02
  0.332228373562E-02  0.336215114045E-02  0.340249695414E-02  0.344332691759E-02
  0.348464684060E-02  0.352646260269E-02  0.356878015392E-02  0.361160551576E-02
  0.365494478195E-02  0.369880411934E-02  0.374318976877E-02  0.378810804599E-02
  0.383356534255E-02  0.387956812666E-02  0.392612294418E-02  0.397323641951E-02
  0.402091525654E-02  0.406916623962E-02  0.411799623450E-02  0.416741218931E-02
  0.421742113558E-02  0.426803018921E-02  0.431924655148E-02  0.437107751010E-02
  0.442353044022E-02  0.447661280550E-02  0.453033215917E-02  0.458469614508E-02
  0.463971249882E-02  0.469538904880E-02  0.475173371739E-02  0.480875452200E-02
  0.486645957626E-02  0.492485709118E-02  0.498395537627E-02  0.504376284079E-02
  0.510428799487E-02  0.516553945081E-02  0.522752592422E-02  0.529025623531E-02
  0.535373931014E-02  0.541798418186E-02  0.548299999204E-02  0.554879599195E-02
  0.561538154385E-02  0.568276612238E-02  0.575095931584E-02  0.581997082763E-02
  0.588981047757E-02  0.596048820330E-02  0.603201406174E-02  0.610439823048E-02
  0.617765100924E-02  0.625178282135E-02  0.632680421521E-02  0.640272586579E-02
  0.647955857618E-02  0.655731327910E-02  0.663600103844E-02  0.671563305091E-02
  0.679622064752E-02  0.687777529529E-02  0.696030859883E-02  0.704383230202E-02
  0.712835828964E-02  0.721389858912E-02  0.730046537219E-02  0.738807095665E-02
  0.747672780813E-02  0.756644854183E-02  0.765724592433E-02  0.774913287542E-02
  0.784212246993E-02  0.793622793957E-02  0.803146267484E-02  0.812784022694E-02
  0.822537430966E-02  0.832407880138E-02  0.842396774700E-02  0.852505535996E-02
  0.862735602428E-02  0.873088429657E-02  0.883565490813E-02  0.894168276703E-02
  0.904898296023E-02  0.915757075575E-02  0.926746160482E-02  0.937867114408E-02
  0.949121519781E-02  0.960510978018E-02  0.972037109755E-02  0.983701555072E-02
  0.995505973733E-02  0.100745204542E-01  0.101954146996E-01  0.103177596760E-01
  0.104415727921E-01  0.105668716656E-01  0.106936741256E-01  0.108219982151E-01
  0.109518621937E-01  0.110832845400E-01  0.112162839545E-01  0.113508793620E-01
  0.114870899143E-01  0.116249349933E-01  0.117644342132E-01  0.119056074238E-01
  0.120484747129E-01  0.121930564094E-01  0.123393730863E-01  0.124874455634E-01
  0.126372949101E-01  0.127889424490E-01  0.129424097584E-01  0.130977186755E-01
  0.132548912996E-01  0.134139499952E-01  0.135749173952E-01  0.137378164039E-01
  0.139026702008E-01  0.140695022432E-01  0.142383362701E-01  0.144091963053E-01
  0.145821066610E-01  0.147570919409E-01  0.149341770442E-01  0.151133871687E-01
  0.152947478148E-01  0.154782847885E-01  0.156640242060E-01  0.158519924965E-01
  0.160422164064E-01  0.162347230033E-01  0.164295396794E-01  0.166266941555E-01
  0.168262144854E-01  0.170281290592E-01  0.172324666079E-01  0.174392562072E-01
  0.176485272817E-01  0.178603096091E-01  0.180746333244E-01  0.182915289243E-01
  0.185110272714E-01  0.187331595986E-01  0.189579575138E-01  0.191854530040E-01
  0.194156784400E-01  0.196486665813E-01  0.198844505803E-01  0.201230639872E-01
  0.203645407551E-01  0.206089152441E-01  0.208562222271E-01  0.211064968938E-01
  0.213597748565E-01  0.216160921548E-01  0.218754852607E-01  0.221379910838E-01
  0.224036469768E-01  0.226724907405E-01  0.229445606294E-01  0.232198953570E-01
  0.234985341012E-01  0.237805165105E-01  0.240658827086E-01  0.243546733011E-01
  0.246469293807E-01  0.249426925333E-01  0.252420048437E-01  0.255449089018E-01
  0.258514478086E-01  0.261616651823E-01  0.264756051645E-01  0.267933124265E-01
  0.271148321756E-01  0.274402101617E-01  0.277694926836E-01  0.281027265958E-01
  0.284399593150E-01  0.287812388268E-01  0.291266136927E-01  0.294761330570E-01
  0.298298466537E-01  0.301878048135E-01  0.305500584713E-01  0.309166591730E-01
  0.312876590830E-01  0.316631109920E-01  0.320430683239E-01  0.324275851438E-01
  0.328167161655E-01  0.332105167595E-01  0.336090429606E-01  0.340123514762E-01
  0.344204996939E-01  0.348335456902E-01  0.352515482385E-01  0.356745668174E-01
  0.361026616192E-01  0.365358935586E-01  0.369743242813E-01  0.374180161727E-01
  0.378670323667E-01  0.383214367551E-01  0.387812939962E-01  0.392466695242E-01
  0.397176295584E-01  0.401942411131E-01  0.406765720065E-01  0.411646908706E-01
  0.416586671610E-01  0.421585711670E-01  0.426644740210E-01  0.431764477092E-01
  0.436945650817E-01  0.442188998627E-01  0.447495266611E-01  0.452865209810E-01
  0.458299592328E-01  0.463799187436E-01  0.469364777685E-01  0.474997155017E-01
  0.480697120877E-01  0.486465486328E-01  0.492303072164E-01  0.498210709030E-01
  0.504189237538E-01  0.510239508389E-01  0.516362382489E-01  0.522558731079E-01
  0.528829435852E-01  0.535175389082E-01  0.541597493751E-01  0.548096663676E-01
  0.554673823640E-01  0.561329909524E-01  0.568065868438E-01  0.574882658860E-01
  0.581781250766E-01  0.588762625775E-01  0.595827777284E-01  0.602977710612E-01
  0.610213443139E-01  0.617536004457E-01  0.624946436510E-01  0.632445793748E-01
  0.640035143273E-01  0.647715564993E-01  0.655488151773E-01  0.663354009594E-01
  0.671314257709E-01  0.679370028801E-01  0.687522469147E-01  0.695772738777E-01
  0.704122011642E-01  0.712571475782E-01  0.721122333491E-01  0.729775801493E-01
  0.738533111111E-01  0.747395508444E-01  0.756364254546E-01  0.765440625600E-01
  0.774625913107E-01  0.783921424065E-01  0.793328481154E-01  0.802848422927E-01
  0.812482604003E-01  0.822232395251E-01  0.832099183994E-01  0.842084374201E-01
  0.852189386692E-01  0.862415659332E-01  0.872764647244E-01  0.883237823011E-01
  0.893836676887E-01  0.904562717010E-01  0.915417469614E-01  0.926402479249E-01
  0.937519309000E-01  0.948769540708E-01  0.960154775197E-01  0.971676632499E-01
  0.983336752089E-01  0.995136793114E-01  0.100707843463E+00  0.101916337585E+00
  0.103139333636E+00  0.104377005639E+00  0.105629529707E+00  0.106897084064E+00
  0.108179849072E+00  0.109478007261E+00  0.110791743348E+00  0.112121244268E+00
  0.113466699200E+00  0.114828299590E+00  0.116206239185E+00  0.117600714055E+00
  0.119011922624E+00  0.120440065696E+00  0.121885346484E+00  0.123347970642E+00
  0.124828146289E+00  0.126326084045E+00  0.127841997053E+00  0.129376101018E+00
  0.130928614230E+00  0.132499757601E+00  0.134089754692E+00  0.135698831749E+00
  0.137327217730E+00  0.138975144342E+00  0.140642846074E+00  0.142330560227E+00
  0.144038526950E+00  0.145766989273E+00  0.147516193145E+00  0.149286387462E+00
  0.151077824112E+00  0.152890758001E+00  0.154725447097E+00  0.156582152463E+00
  0.158461138292E+00  0.160362671952E+00  0.162287024015E+00  0.164234468303E+00
  0.166205281923E+00  0.168199745306E+00  0.170218142250E+00  0.172260759957E+00
  0.174327889076E+00  0.176419823745E+00  0.178536861630E+00  0.180679303969E+00
  0.182847455617E+00  0.185041625084E+00  0.187262124585E+00  0.189509270081E+00
  0.191783381321E+00  0.194084781897E+00  0.196413799280E+00  0.198770764871E+00
  0.201156014050E+00  0.203569886219E+00  0.206012724853E+00  0.208484877551E+00
  0.210986696082E+00  0.213518536435E+00  0.216080758872E+00  0.218673727979E+00
  0.221297812714E+00  0.223953386467E+00  0.226640827105E+00  0.229360517030E+00
  0.232112843234E+00  0.234898197353E+00  0.237716975721E+00  0.240569579430E+00
  0.243456414383E+00  0.246377891356E+00  0.249334426052E+00  0.252326439165E+00
  0.255354356435E+00  0.258418608712E+00  0.261519632016E+00  0.264657867600E+00
  0.267833762012E+00  0.271047767156E+00  0.274300340362E+00  0.277591944446E+00
  0.280923047779E+00  0.284294124353E+00  0.287705653845E+00  0.291158121691E+00
  0.294652019151E+00  0.298187843381E+00  0.301766097502E+00  0.305387290672E+00
  0.309051938160E+00  0.312760561418E+00  0.316513688155E+00  0.320311852413E+00
  0.324155594642E+00  0.328045461777E+00  0.331982007319E+00  0.335965791406E+00
  0.339997380903E+00  0.344077349474E+00  0.348206277668E+00  0.352384753000E+00
  0.356613370036E+00  0.360892730476E+00  0.365223443242E+00  0.369606124561E+00
  0.374041398056E+00  0.378529894832E+00  0.383072253570E+00  0.387669120613E+00
  0.392321150061E+00  0.397029003861E+00  0.401793351908E+00  0.406614872130E+00
  0.411494250596E+00  0.416432181603E+00  0.421429367782E+00  0.426486520196E+00
  0.431604358438E+00  0.436783610739E+00  0.442025014068E+00  0.447329314237E+00
  0.452697266008E+00  0.458129633200E+00  0.463627188798E+00  0.469190715064E+00
  0.474821003645E+00  0.480518855689E+00  0.486285081957E+00  0.492120502940E+00
  0.498025948976E+00  0.504002260363E+00  0.510050287488E+00  0.516170890938E+00
  0.522364941629E+00  0.528633320928E+00  0.534976920779E+00  0.541396643829E+00
  0.547893403555E+00  0.554468124397E+00  0.561121741890E+00  0.567855202793E+00
  0.574669465226E+00  0.581565498809E+00  0.588544284795E+00  0.595606816212E+00
  0.602754098007E+00  0.609987147183E+00  0.617306992949E+00  0.624714676865E+00
  0.632211252987E+00  0.639797788023E+00  0.647475361479E+00  0.655245065817E+00
  0.663108006607E+00  0.671065302686E+00  0.679118086318E+00  0.687267503354E+00
  0.695514713394E+00  0.703860889955E+00  0.712307220634E+00  0.720854907282E+00
  0.729505166169E+00  0.738259228163E+00  0.747118338901E+00  0.756083758968E+00
  0.765156764076E+00  0.774338645245E+00  0.783630708988E+00  0.793034277495E+00
  0.802550688825E+00  0.812181297091E+00  0.821927472656E+00  0.831790602328E+00
  0.841772089556E+00  0.851873354631E+00  0.862095834886E+00  0.872440984905E+00
  0.882910276724E+00  0.893505200045E+00  0.904227262445E+00  0.915077989595E+00
  0.926058925470E+00  0.937171632575E+00  0.948417692166E+00  0.959798704472E+00
  0.971316288926E+00  0.982972084393E+00  0.994767749406E+00  0.100670496240E+01
  0.101878542195E+01  0.103101084701E+01  0.104338297717E+01  0.105590357290E+01
  0.106857441578E+01  0.108139730877E+01  0.109437407647E+01  0.110750656539E+01
  0.112079664417E+01  0.113424620390E+01  0.114785715835E+01  0.116163144425E+01
  0.117557102158E+01  0.118967787384E+01  0.120395400833E+01  0.121840145643E+01
  0.123302227390E+01  0.124781854119E+01  0.126279236368E+01  0.127794587205E+01
  0.129328122251E+01  0.130880059718E+01  0.132450620435E+01  0.134040027880E+01
  0.135648508215E+01  0.137276290313E+01  0.138923605797E+01  0.140590689067E+01
  0.142277777335E+01  0.143985110663E+01  0.145712931991E+01  0.147461487175E+01
  0.149231025021E+01  0.151021797322E+01  0.152834058889E+01  0.154668067596E+01
  0.156524084407E+01  0.158402373420E+01  0.160303201901E+01  0.162226840324E+01
  0.164173562408E+01  0.166143645157E+01  0.168137368899E+01  0.170155017325E+01
  0.172196877533E+01  0.174263240064E+01  0.176354398945E+01  0.178470651732E+01
  0.180612299553E+01  0.182779647147E+01  0.184973002913E+01  0.187192678948E+01
  0.189438991095E+01  0.191712258989E+01  0.194012806096E+01  0.196340959770E+01
  0.198697051287E+01  0.201081415902E+01  0.203494392893E+01  0.205936325608E+01
  0.208407561515E+01  0.210908452253E+01  0.213439353680E+01  0.216000625924E+01
  0.218592633436E+01  0.221215745037E+01  0.223870333977E+01  0.226556777985E+01
  0.229275459321E+01  0.232026764833E+01  0.234811086011E+01  0.237628819043E+01
  0.240480364871E+01  0.243366129250E+01  0.246286522801E+01  0.249241961074E+01
  0.252232864607E+01  0.255259658983E+01  0.258322774890E+01  0.261422648189E+01
  0.264559719967E+01  0.267734436607E+01  0.270947249846E+01  0.274198616844E+01
  0.277489000246E+01  0.280818868249E+01  0.284188694668E+01  0.287598959004E+01
  0.291050146512E+01  0.294542748271E+01  0.298077261250E+01  0.301654188385E+01
  0.305274038645E+01  0.308937327109E+01  0.312644575035E+01  0.316396309935E+01
  0.320193065654E+01  0.324035382442E+01  0.327923807031E+01  0.331858892716E+01
  0.335841199428E+01  0.339871293821E+01  0.343949749347E+01  0.348077146339E+01
  0.352254072096E+01  0.356481120961E+01  0.360758894412E+01  0.365088001145E+01
  0.369469057159E+01  0.373902685845E+01  0.378389518075E+01  0.382930192292E+01
  0.387525354599E+01  0.392175658855E+01  0.396881766761E+01  0.401644347962E+01
  0.406464080137E+01  0.411341649099E+01  0.416277748888E+01  0.421273081875E+01
  0.426328358857E+01  0.431444299164E+01  0.436621630754E+01  0.441861090323E+01
  0.447163423407E+01  0.452529384487E+01  0.457959737101E+01  0.463455253947E+01
  0.469016716994E+01  0.474644917598E+01  0.480340656609E+01  0.486104744488E+01
  0.491938001422E+01  0.497841257439E+01  0.503815352529E+01  0.509861136759E+01
  0.515979470400E+01  0.522171224045E+01  0.528437278733E+01  0.534778526078E+01
  0.541195868391E+01  0.547690218812E+01  0.554262501437E+01  0.560913651455E+01
  0.567644615272E+01  0.574456350655E+01  0.581349826863E+01  0.588326024786E+01
  0.595385937083E+01  0.602530568328E+01  0.609760935148E+01  0.617078066370E+01
  0.624483003166E+01  0.631976799204E+01  0.639560520795E+01  0.647235247044E+01
  0.655002070009E+01  0.662862094849E+01  0.670816439987E+01  0.678866237267E+01
  0.687012632114E+01  0.695256783699E+01  0.703599865104E+01  0.712043063485E+01
  0.720587580247E+01  0.729234631210E+01  0.737985446784E+01  0.746841272146E+01
  0.755803367412E+01  0.764873007820E+01  0.774051483914E+01  0.783340101721E+01
  0.792740182942E+01  0.802253065137E+01  0.811880101919E+01  0.821622663142E+01
  0.831482135100E+01  0.841459920721E+01  0.851557439769E+01  0.861776129047E+01
  0.872117442595E+01  0.882582851906E+01  0.893173846129E+01  0.903891932283E+01
  0.914738635470E+01  0.925715499096E+01  0.936824085085E+01  0.948065974106E+01
  0.959442765795E+01  0.970956078985E+01  0.982607551933E+01  0.994398842556E+01
  0.100633162867E+02  0.101840760821E+02  0.103062849951E+02  0.104299604150E+02
  0.105551199400E+02  0.106817813793E+02  0.108099627558E+02  0.109396823089E+02
  0.110709584966E+02  0.112038099986E+02  0.113382557186E+02  0.114743147872E+02
  0.116120065646E+02  0.117513506434E+02  0.118923668511E+02  0.120350752533E+02
  0.121794961564E+02  0.123256501103E+02  0.124735579116E+02  0.126232406065E+02
  0.127747194938E+02  0.129280161277E+02  0.130831523213E+02  0.132401501491E+02
  0.133990319509E+02  0.135598203343E+02  0.137225381783E+02  0.138872086365E+02
  0.140538551401E+02  0.142225014018E+02  0.143931714186E+02  0.145658894756E+02
  0.147406801493E+02  0.149175683111E+02  0.150965791309E+02  0.152777380804E+02
  0.154610709374E+02  0.156466037886E+02  0.158343630341E+02  0.160243753905E+02
  0.162166678952E+02  0.164112679099E+02  0.166082031249E+02  0.168075015624E+02
  0.170091915811E+02  0.172133018801E+02  0.174198615026E+02  0.176288998407E+02
  0.178404466388E+02  0.180545319984E+02  0.182711863824E+02  0.184904406190E+02
  0.187123259064E+02  0.189368738173E+02  0.191641163031E+02  0.193940856988E+02
  0.196268147271E+02  0.198623365039E+02  0.201006845419E+02  0.203418927564E+02
  0.205859954695E+02  0.208330274151E+02  0.210830237441E+02  0.213360200290E+02
  0.215920522694E+02  0.218511568966E+02  0.221133707794E+02  0.223787312287E+02
  0.226472760035E+02  0.229190433155E+02  0.231940718353E+02  0.234724006973E+02
  0.237540695057E+02  0.240391183398E+02  0.243275877598E+02  0.246195188130E+02
  0.249149530387E+02  0.252139324752E+02  0.255164996649E+02  0.258226976609E+02
  0.261325700328E+02  0.264461608732E+02  0.267635148037E+02  0.270846769813E+02
  0.274096931051E+02  0.277386094223E+02  0.280714727354E+02  0.284083304082E+02
  0.287492303731E+02  0.290942211376E+02  0.294433517913E+02  0.297966720128E+02
  0.301542320769E+02  0.305160828618E+02  0.308822758562E+02  0.312528631664E+02
  0.316278975244E+02  0.320074322947E+02  0.323915214823E+02  0.327802197401E+02
  0.331735823769E+02  0.335716653655E+02  0.339745253499E+02  0.343822196540E+02
  0.347948062899E+02  0.352123439654E+02  0.356348920930E+02  0.360625107981E+02
  0.364952609277E+02  0.369332040588E+02  0.373764025075E+02  0.378249193376E+02
  0.382788183696E+02  0.387381641901E+02  0.392030221603E+02  0.396734584263E+02
  0.401495399274E+02  0.406313344065E+02  0.411189104194E+02  0.416123373444E+02
  0.421116853926E+02  0.426170256173E+02  0.431284299247E+02  0.436459710838E+02
  0.441697227368E+02
   </PP_R>
   <PP_RAB type="real"  size="1177" columns="4">
  0.426020388045E-06  0.431132632702E-06  0.436306224294E-06  0.441541898986E-06
  0.446840401774E-06  0.452202486595E-06  0.457628916434E-06  0.463120463431E-06
  0.468677908993E-06  0.474302043901E-06  0.479993668427E-06  0.485753592448E-06
  0.491582635558E-06  0.497481627185E-06  0.503451406711E-06  0.509492823591E-06
  0.515606737474E-06  0.521794018324E-06  0.528055546544E-06  0.534392213103E-06
  0.540804919660E-06  0.547294578696E-06  0.553862113640E-06  0.560508459004E-06
  0.567234560512E-06  0.574041375238E-06  0.580929871741E-06  0.587901030202E-06
  0.594955842564E-06  0.602095312675E-06  0.609320456427E-06  0.616632301904E-06
  0.624031889527E-06  0.631520272201E-06  0.639098515468E-06  0.646767697653E-06
  0.654528910025E-06  0.662383256945E-06  0.670331856029E-06  0.678375838301E-06
  0.686516348361E-06  0.694754544541E-06  0.703091599075E-06  0.711528698264E-06
  0.720067042644E-06  0.728707847155E-06  0.737452341321E-06  0.746301769417E-06
  0.755257390650E-06  0.764320479338E-06  0.773492325090E-06  0.782774232991E-06
  0.792167523787E-06  0.801673534072E-06  0.811293616481E-06  0.821029139879E-06
  0.830881489557E-06  0.840852067432E-06  0.850942292241E-06  0.861153599748E-06
  0.871487442945E-06  0.881945292261E-06  0.892528635768E-06  0.903238979397E-06
  0.914077847150E-06  0.925046781315E-06  0.936147342691E-06  0.947381110804E-06
  0.958749684133E-06  0.970254680343E-06  0.981897736507E-06  0.993680509345E-06
  0.100560467546E-05  0.101767193156E-05  0.102988399474E-05  0.104224260268E-05
  0.105474951391E-05  0.106740650808E-05  0.108021538617E-05  0.109317797081E-05
  0.110629610646E-05  0.111957165974E-05  0.113300651965E-05  0.114660259789E-05
  0.116036182906E-05  0.117428617101E-05  0.118837760506E-05  0.120263813632E-05
  0.121706979396E-05  0.123167463149E-05  0.124645472707E-05  0.126141218379E-05
  0.127654913000E-05  0.129186771956E-05  0.130737013219E-05  0.132305857378E-05
  0.133893527666E-05  0.135500249998E-05  0.137126252998E-05  0.138771768034E-05
  0.140437029251E-05  0.142122273602E-05  0.143827740885E-05  0.145553673775E-05
  0.147300317861E-05  0.149067921675E-05  0.150856736735E-05  0.152667017576E-05
  0.154499021787E-05  0.156353010048E-05  0.158229246169E-05  0.160127997123E-05
  0.162049533088E-05  0.163994127485E-05  0.165962057015E-05  0.167953601699E-05
  0.169969044920E-05  0.172008673459E-05  0.174072777540E-05  0.176161650871E-05
  0.178275590681E-05  0.180414897770E-05  0.182579876543E-05  0.184770835061E-05
  0.186988085082E-05  0.189231942103E-05  0.191502725408E-05  0.193800758113E-05
  0.196126367211E-05  0.198479883617E-05  0.200861642220E-05  0.203271981927E-05
  0.205711245710E-05  0.208179780659E-05  0.210677938027E-05  0.213206073283E-05
  0.215764546162E-05  0.218353720716E-05  0.220973965365E-05  0.223625652949E-05
  0.226309160785E-05  0.229024870714E-05  0.231773169163E-05  0.234554447193E-05
  0.237369100559E-05  0.240217529766E-05  0.243100140123E-05  0.246017341804E-05
  0.248969549906E-05  0.251957184505E-05  0.254980670719E-05  0.258040438767E-05
  0.261136924033E-05  0.264270567121E-05  0.267441813927E-05  0.270651115694E-05
  0.273898929082E-05  0.277185716231E-05  0.280511944826E-05  0.283878088164E-05
  0.287284625222E-05  0.290732040724E-05  0.294220825213E-05  0.297751475116E-05
  0.301324492817E-05  0.304940386731E-05  0.308599671371E-05  0.312302867428E-05
  0.316050501837E-05  0.319843107859E-05  0.323681225153E-05  0.327565399855E-05
  0.331496184654E-05  0.335474138869E-05  0.339499828536E-05  0.343573826478E-05
  0.347696712396E-05  0.351869072945E-05  0.356091501820E-05  0.360364599842E-05
  0.364688975040E-05  0.369065242740E-05  0.373494025653E-05  0.377975953961E-05